  BEGIN_INFO
       #
       # this is a Band-XCRYSDEN-Structure-File
       # for Fermi Surface Visualisation
       #
       # Generated by the Wannier90 code http://www.wannier.org
       # On 30Nov2015 at 19:59:33
       #
       Fermi Energy:   12.210100000000001
  END_INFO

  BEGIN_BLOCK_BANDGRID_3D
 from_wannier_code
  BEGIN_BANDGRID_3D_fermi
           7
          21          21          21
 0.0 0.0 0.0
  -1.7404719250572223       -1.7404719250572223        1.7404719250572223
   1.7404719250572223        1.7404719250572223        1.7404719250572223
  -1.7404719250572223        1.7404719250572223       -1.7404719250572223
 BAND:            1
  0.28174104E+01
  0.29246834E+01
  0.32285427E+01
  0.36884855E+01
  0.42680032E+01
  0.49463802E+01
  0.56952981E+01
  0.64111794E+01
  0.68858800E+01
  0.70706252E+01
  0.71104798E+01
  0.70706270E+01
  0.68858830E+01
  0.64111819E+01
  0.56952992E+01
  0.49463802E+01
  0.42680027E+01
  0.36884850E+01
  0.32285424E+01
  0.29246833E+01
  0.28174104E+01
  0.29247040E+01
  0.29123067E+01
  0.31000639E+01
  0.34616602E+01
  0.39715145E+01
  0.46158505E+01
  0.53758663E+01
  0.61740196E+01
  0.67993639E+01
  0.70769200E+01
  0.71292431E+01
  0.70858253E+01
  0.69476787E+01
  0.66132282E+01
  0.60348134E+01
  0.53472339E+01
  0.46732389E+01
  0.40597493E+01
  0.35355051E+01
  0.31416817E+01
  0.29247040E+01
  0.32286113E+01
  0.31001043E+01
  0.31643856E+01
  0.34179176E+01
  0.38509465E+01
  0.44527594E+01
  0.51990901E+01
  0.60168328E+01
  0.67270859E+01
  0.71103129E+01
  0.72054764E+01
  0.71697090E+01
  0.70559035E+01
  0.68167880E+01
  0.63787634E+01
  0.57849773E+01
  0.51482900E+01
  0.45364344E+01
  0.39860795E+01
  0.35355620E+01
  0.32286113E+01
  0.36885872E+01
  0.34617155E+01
  0.34179236E+01
  0.35841609E+01
  0.39684310E+01
  0.45546270E+01
  0.52942775E+01
  0.60930359E+01
  0.67955043E+01
  0.72259006E+01
  0.73726449E+01
  0.73677482E+01
  0.72876404E+01
  0.71227293E+01
  0.68006763E+01
  0.62920265E+01
  0.56888595E+01
  0.50881725E+01
  0.45365045E+01
  0.40598609E+01
  0.36885872E+01
  0.42680821E+01
  0.39715250E+01
  0.38508942E+01
  0.39683666E+01
  0.43477426E+01
  0.49556439E+01
  0.56987535E+01
  0.64408958E+01
  0.70465940E+01
  0.74325314E+01
  0.76068352E+01
  0.76524426E+01
  0.76324888E+01
  0.75507458E+01
  0.73360528E+01
  0.68916997E+01
  0.62914718E+01
  0.56889055E+01
  0.51483900E+01
  0.46733546E+01
  0.42680821E+01
  0.49463802E+01
  0.46157703E+01
  0.44526078E+01
  0.45544546E+01
  0.49555281E+01
  0.55923404E+01
  0.63053365E+01
  0.69102653E+01
  0.73291347E+01
  0.75987954E+01
  0.77672919E+01
  0.78702120E+01
  0.79384699E+01
  0.79660547E+01
  0.78718049E+01
  0.74943267E+01
  0.68916973E+01
  0.62920533E+01
  0.57850353E+01
  0.53472863E+01
  0.49463802E+01
  0.56952192E+01
  0.53757149E+01
  0.51988701E+01
  0.52940293E+01
  0.56985464E+01
  0.63052328E+01
  0.68774926E+01
  0.72427945E+01
  0.74488475E+01
  0.76010234E+01
  0.77447260E+01
  0.78765371E+01
  0.80011256E+01
  0.81200249E+01
  0.81508801E+01
  0.78717943E+01
  0.73360246E+01
  0.68006498E+01
  0.63787454E+01
  0.60347811E+01
  0.56952192E+01
  0.64110923E+01
  0.61738817E+01
  0.60166384E+01
  0.60928095E+01
  0.64406909E+01
  0.69101392E+01
  0.72427531E+01
  0.73760461E+01
  0.74300860E+01
  0.74998684E+01
  0.76161406E+01
  0.77565351E+01
  0.78957041E+01
  0.80324572E+01
  0.81200292E+01
  0.79660524E+01
  0.75507186E+01
  0.71226855E+01
  0.68167390E+01
  0.66131677E+01
  0.64110923E+01
  0.68858440E+01
  0.67993070E+01
  0.67269942E+01
  0.67953837E+01
  0.70464740E+01
  0.73290508E+01
  0.74488072E+01
  0.74300712E+01
  0.73869984E+01
  0.73927821E+01
  0.74720102E+01
  0.76050907E+01
  0.77530355E+01
  0.78956985E+01
  0.80011296E+01
  0.79384821E+01
  0.76324827E+01
  0.72876140E+01
  0.70558698E+01
  0.69476445E+01
  0.68858440E+01
  0.70706197E+01
  0.70769127E+01
  0.71102970E+01
  0.72258756E+01
  0.74325006E+01
  0.75987613E+01
  0.76009919E+01
  0.74998451E+01
  0.73927705E+01
  0.73390687E+01
  0.73643054E+01
  0.74627404E+01
  0.76050768E+01
  0.77565150E+01
  0.78765306E+01
  0.78702281E+01
  0.76524562E+01
  0.73677435E+01
  0.71696945E+01
  0.70858128E+01
  0.70706197E+01
  0.71104798E+01
  0.71292425E+01
  0.72054760E+01
  0.73726511E+01
  0.76068477E+01
  0.77672919E+01
  0.77447049E+01
  0.76161137E+01
  0.74719929E+01
  0.73643008E+01
  0.73245860E+01
  0.73642992E+01
  0.74719901E+01
  0.76161105E+01
  0.77447030E+01
  0.77672919E+01
  0.76068470E+01
  0.73726483E+01
  0.72054721E+01
  0.71292396E+01
  0.71104798E+01
  0.70706189E+01
  0.70858151E+01
  0.71696986E+01
  0.73677473E+01
  0.76524577E+01
  0.78702275E+01
  0.78765309E+01
  0.77565174E+01
  0.76050800E+01
  0.74627428E+01
  0.73643064E+01
  0.73390681E+01
  0.73927685E+01
  0.74998419E+01
  0.76009889E+01
  0.75987596E+01
  0.74324997E+01
  0.72258735E+01
  0.71102935E+01
  0.70769094E+01
  0.70706189E+01
  0.68858421E+01
  0.69476458E+01
  0.70558736E+01
  0.72876184E+01
  0.76324857E+01
  0.79384824E+01
  0.80011291E+01
  0.78956995E+01
  0.77530379E+01
  0.76050932E+01
  0.74720115E+01
  0.73927818E+01
  0.73869966E+01
  0.74300680E+01
  0.74488035E+01
  0.73290479E+01
  0.70464722E+01
  0.67953820E+01
  0.67269914E+01
  0.67993036E+01
  0.68858421E+01
  0.64110897E+01
  0.66131673E+01
  0.68167413E+01
  0.71226895E+01
  0.75507225E+01
  0.79660544E+01
  0.81200291E+01
  0.80324574E+01
  0.78957053E+01
  0.77565367E+01
  0.76161414E+01
  0.74998676E+01
  0.74300836E+01
  0.73760423E+01
  0.72427488E+01
  0.69101360E+01
  0.64406897E+01
  0.60928091E+01
  0.60166371E+01
  0.61738791E+01
  0.64110897E+01
  0.56952172E+01
  0.60347795E+01
  0.63787457E+01
  0.68006519E+01
  0.73360276E+01
  0.78717968E+01
  0.81508809E+01
  0.81200251E+01
  0.80011261E+01
  0.78765379E+01
  0.77447260E+01
  0.76010216E+01
  0.74488440E+01
  0.72427897E+01
  0.68774882E+01
  0.63052309E+01
  0.56985472E+01
  0.52940314E+01
  0.51988714E+01
  0.53757143E+01
  0.56952172E+01
  0.49463802E+01
  0.53472853E+01
  0.57850347E+01
  0.62920535E+01
  0.68916978E+01
  0.74943267E+01
  0.78718039E+01
  0.79660538E+01
  0.79384698E+01
  0.78702126E+01
  0.77672919E+01
  0.75987933E+01
  0.73291302E+01
  0.69102599E+01
  0.63053328E+01
  0.55923404E+01
  0.49555315E+01
  0.45544595E+01
  0.44526121E+01
  0.46157725E+01
  0.49463802E+01
  0.42680843E+01
  0.46733553E+01
  0.51483900E+01
  0.56889050E+01
  0.62914705E+01
  0.68916967E+01
  0.73360483E+01
  0.75507416E+01
  0.76324863E+01
  0.76524418E+01
  0.76068351E+01
  0.74325296E+01
  0.70465895E+01
  0.64408906E+01
  0.56987507E+01
  0.49556452E+01
  0.43477476E+01
  0.39683735E+01
  0.38509007E+01
  0.39715296E+01
  0.42680843E+01
  0.36885910E+01
  0.40598633E+01
  0.45365058E+01
  0.50881728E+01
  0.56888582E+01
  0.62920224E+01
  0.68006696E+01
  0.71227223E+01
  0.72876352E+01
  0.73677453E+01
  0.73726436E+01
  0.72258988E+01
  0.67955002E+01
  0.60930312E+01
  0.52942750E+01
  0.45546283E+01
  0.39684360E+01
  0.35841679E+01
  0.34179307E+01
  0.34617212E+01
  0.36885910E+01
  0.32286153E+01
  0.35355651E+01
  0.39860820E+01
  0.45364359E+01
  0.51482897E+01
  0.57849740E+01
  0.63787570E+01
  0.68167802E+01
  0.70558971E+01
  0.71697049E+01
  0.72054743E+01
  0.71103113E+01
  0.67270830E+01
  0.60168291E+01
  0.51990879E+01
  0.44527600E+01
  0.38509499E+01
  0.34179228E+01
  0.31643913E+01
  0.31001093E+01
  0.32286153E+01
  0.29247065E+01
  0.31416840E+01
  0.35355073E+01
  0.40597512E+01
  0.46732396E+01
  0.53472325E+01
  0.60348093E+01
  0.66132221E+01
  0.69476732E+01
  0.70858217E+01
  0.71292416E+01
  0.70769198E+01
  0.67993636E+01
  0.61740184E+01
  0.53758651E+01
  0.46158503E+01
  0.39715156E+01
  0.34616623E+01
  0.31000666E+01
  0.29123095E+01
  0.29247065E+01
  0.28174104E+01
  0.29246834E+01
  0.32285427E+01
  0.36884855E+01
  0.42680032E+01
  0.49463802E+01
  0.56952981E+01
  0.64111794E+01
  0.68858800E+01
  0.70706252E+01
  0.71104798E+01
  0.70706270E+01
  0.68858830E+01
  0.64111819E+01
  0.56952992E+01
  0.49463802E+01
  0.42680027E+01
  0.36884850E+01
  0.32285424E+01
  0.29246833E+01
  0.28174104E+01
  0.29247058E+01
  0.29123089E+01
  0.31000663E+01
  0.34616621E+01
  0.39715150E+01
  0.46158488E+01
  0.53758620E+01
  0.61740137E+01
  0.67993590E+01
  0.70769172E+01
  0.71292410E+01
  0.70858229E+01
  0.69476761E+01
  0.66132261E+01
  0.60348125E+01
  0.53472339E+01
  0.46732393E+01
  0.40597500E+01
  0.35355060E+01
  0.31416830E+01
  0.29247058E+01
  0.29123349E+01
  0.28038350E+01
  0.29075211E+01
  0.31947340E+01
  0.36350211E+01
  0.42163331E+01
  0.49375334E+01
  0.57659653E+01
  0.65472171E+01
  0.70009517E+01
  0.71157249E+01
  0.70736246E+01
  0.69381947E+01
  0.66579757E+01
  0.61770572E+01
  0.55681514E+01
  0.49286995E+01
  0.43003496E+01
  0.37157359E+01
  0.32309102E+01
  0.29123349E+01
  0.31001403E+01
  0.29075748E+01
  0.29278947E+01
  0.31393844E+01
  0.35120848E+01
  0.40314826E+01
  0.46983637E+01
  0.54970896E+01
  0.63243377E+01
  0.69208947E+01
  0.71367749E+01
  0.71263911E+01
  0.70034505E+01
  0.67619588E+01
  0.63596478E+01
  0.58288926E+01
  0.52401818E+01
  0.46290410E+01
  0.40264599E+01
  0.34917575E+01
  0.31001403E+01
  0.34617581E+01
  0.31948111E+01
  0.31394092E+01
  0.32905903E+01
  0.36241973E+01
  0.41176923E+01
  0.47559137E+01
  0.55121826E+01
  0.63026863E+01
  0.69351871E+01
  0.72355484E+01
  0.72815503E+01
  0.71977255E+01
  0.70098234E+01
  0.66854839E+01
  0.62222587E+01
  0.56718280E+01
  0.50772768E+01
  0.44716966E+01
  0.39088840E+01
  0.34617581E+01
  0.39715822E+01
  0.36350579E+01
  0.35120652E+01
  0.36241506E+01
  0.39577802E+01
  0.44754353E+01
  0.51260377E+01
  0.58455737E+01
  0.65473557E+01
  0.71114166E+01
  0.74317493E+01
  0.75357418E+01
  0.75164472E+01
  0.74107254E+01
  0.71884758E+01
  0.67975658E+01
  0.62632112E+01
  0.56633379E+01
  0.50502193E+01
  0.44665095E+01
  0.39715822E+01
  0.46158616E+01
  0.42162916E+01
  0.40313702E+01
  0.41175413E+01
  0.44753220E+01
  0.50457447E+01
  0.57229683E+01
  0.63842482E+01
  0.69396687E+01
  0.73578633E+01
  0.76340513E+01
  0.77834326E+01
  0.78486687E+01
  0.78506380E+01
  0.77570839E+01
  0.74655177E+01
  0.69470823E+01
  0.63384116E+01
  0.57295715E+01
  0.51443340E+01
  0.46158616E+01
  0.53758610E+01
  0.49374552E+01
  0.46981906E+01
  0.47556767E+01
  0.51258139E+01
  0.57228418E+01
  0.63707822E+01
  0.68887419E+01
  0.72345046E+01
  0.74820476E+01
  0.76869539E+01
  0.78529534E+01
  0.79863774E+01
  0.81005708E+01
  0.81514973E+01
  0.79739072E+01
  0.75052717E+01
  0.69466654E+01
  0.64104819E+01
  0.58900832E+01
  0.53758610E+01
  0.61740727E+01
  0.57659552E+01
  0.54969641E+01
  0.55119585E+01
  0.58453254E+01
  0.63840660E+01
  0.68886696E+01
  0.71861208E+01
  0.73350099E+01
  0.74546357E+01
  0.76001486E+01
  0.77603857E+01
  0.79099352E+01
  0.80540731E+01
  0.81773616E+01
  0.81184604E+01
  0.77507080E+01
  0.73063404E+01
  0.69197249E+01
  0.65678406E+01
  0.61740727E+01
  0.67994502E+01
  0.65473064E+01
  0.63243384E+01
  0.63025731E+01
  0.65471844E+01
  0.69395218E+01
  0.72344292E+01
  0.73349888E+01
  0.73490449E+01
  0.73814838E+01
  0.74752639E+01
  0.76180436E+01
  0.77711081E+01
  0.79184735E+01
  0.80493755E+01
  0.80627480E+01
  0.78028054E+01
  0.74462995E+01
  0.71703229E+01
  0.69855562E+01
  0.67994502E+01
  0.70769622E+01
  0.70010157E+01
  0.69209384E+01
  0.69351686E+01
  0.71113479E+01
  0.73577846E+01
  0.74819908E+01
  0.74546108E+01
  0.73814793E+01
  0.73444635E+01
  0.73797082E+01
  0.74840294E+01
  0.76279118E+01
  0.77812865E+01
  0.79198362E+01
  0.79710080E+01
  0.77979081E+01
  0.74981658E+01
  0.72638023E+01
  0.71417576E+01
  0.70769622E+01
  0.71292470E+01
  0.71157259E+01
  0.71367675E+01
  0.72355313E+01
  0.74317294E+01
  0.76340225E+01
  0.76869090E+01
  0.76001149E+01
  0.74752546E+01
  0.73797121E+01
  0.73494437E+01
  0.73951698E+01
  0.75053675E+01
  0.76540605E+01
  0.78040214E+01
  0.78822655E+01
  0.77701936E+01
  0.75137766E+01
  0.72935013E+01
  0.71750512E+01
  0.71292470E+01
  0.70858020E+01
  0.70735820E+01
  0.71263329E+01
  0.72814967E+01
  0.75357166E+01
  0.77834274E+01
  0.78529215E+01
  0.77603423E+01
  0.76180233E+01
  0.74840357E+01
  0.73951827E+01
  0.73771865E+01
  0.74362519E+01
  0.75558418E+01
  0.76962641E+01
  0.77797307E+01
  0.76938264E+01
  0.74655492E+01
  0.72604466E+01
  0.71417299E+01
  0.70858020E+01
  0.69476202E+01
  0.69381128E+01
  0.70033453E+01
  0.71976214E+01
  0.75163818E+01
  0.78486558E+01
  0.79863626E+01
  0.79098950E+01
  0.77710774E+01
  0.76279108E+01
  0.75053870E+01
  0.74362673E+01
  0.74416000E+01
  0.75112599E+01
  0.76013299E+01
  0.76271354E+01
  0.74894211E+01
  0.72468768E+01
  0.70675935E+01
  0.69854669E+01
  0.69476202E+01
  0.66131305E+01
  0.66578595E+01
  0.67618098E+01
  0.70096575E+01
  0.74105927E+01
  0.78505802E+01
  0.81005617E+01
  0.80540419E+01
  0.79184365E+01
  0.77812661E+01
  0.76540648E+01
  0.75558546E+01
  0.75112659E+01
  0.75102803E+01
  0.74973649E+01
  0.73695146E+01
  0.70632401E+01
  0.67366991E+01
  0.65727832E+01
  0.65676893E+01
  0.66131305E+01
  0.60347677E+01
  0.61770061E+01
  0.63595478E+01
  0.66853203E+01
  0.71882942E+01
  0.77569612E+01
  0.81514598E+01
  0.81773392E+01
  0.80493355E+01
  0.79197927E+01
  0.78039893E+01
  0.76962476E+01
  0.76013235E+01
  0.74973664E+01
  0.73062856E+01
  0.69231466E+01
  0.64024356E+01
  0.59891846E+01
  0.58304420E+01
  0.58899801E+01
  0.60347677E+01
  0.53473259E+01
  0.55682765E+01
  0.58289793E+01
  0.62222472E+01
  0.67974560E+01
  0.74653783E+01
  0.79738174E+01
  0.81184271E+01
  0.80627163E+01
  0.79709593E+01
  0.78822079E+01
  0.77796812E+01
  0.76271131E+01
  0.73695312E+01
  0.69231837E+01
  0.62823055E+01
  0.56332173E+01
  0.51945251E+01
  0.50505219E+01
  0.51443288E+01
  0.53473259E+01
  0.46734324E+01
  0.49289526E+01
  0.52404258E+01
  0.56719882E+01
  0.62632472E+01
  0.69470149E+01
  0.75051774E+01
  0.77506513E+01
  0.78027732E+01
  0.77978709E+01
  0.77701416E+01
  0.76937724E+01
  0.74894020E+01
  0.70632915E+01
  0.64025308E+01
  0.56332826E+01
  0.49578046E+01
  0.45271984E+01
  0.43828547E+01
  0.44665700E+01
  0.46734324E+01
  0.40599422E+01
  0.43005902E+01
  0.46292813E+01
  0.50774635E+01
  0.56634311E+01
  0.63384026E+01
  0.69465913E+01
  0.73062723E+01
  0.74462593E+01
  0.74981333E+01
  0.75137364E+01
  0.74655073E+01
  0.72468708E+01
  0.67367722E+01
  0.59893058E+01
  0.51946189E+01
  0.45272294E+01
  0.40875954E+01
  0.38956403E+01
  0.39089567E+01
  0.40599422E+01
  0.35356202E+01
  0.37158654E+01
  0.40265744E+01
  0.44717783E+01
  0.50502593E+01
  0.57295635E+01
  0.64104252E+01
  0.69196542E+01
  0.71702768E+01
  0.72637733E+01
  0.72934750E+01
  0.72604247E+01
  0.70676062E+01
  0.65728632E+01
  0.58305473E+01
  0.50505821E+01
  0.43828481E+01
  0.38956068E+01
  0.36035773E+01
  0.34918055E+01
  0.35356202E+01
  0.31417145E+01
  0.32309287E+01
  0.34917413E+01
  0.39088440E+01
  0.44664722E+01
  0.51443090E+01
  0.58900440E+01
  0.65677680E+01
  0.69854962E+01
  0.71417275E+01
  0.71750374E+01
  0.71417296E+01
  0.69855011E+01
  0.65677753E+01
  0.58900505E+01
  0.51443130E+01
  0.44664741E+01
  0.39088447E+01
  0.34917415E+01
  0.32309287E+01
  0.31417145E+01
  0.29247058E+01
  0.29123089E+01
  0.31000663E+01
  0.34616621E+01
  0.39715150E+01
  0.46158488E+01
  0.53758620E+01
  0.61740137E+01
  0.67993590E+01
  0.70769172E+01
  0.71292410E+01
  0.70858229E+01
  0.69476761E+01
  0.66132261E+01
  0.60348125E+01
  0.53472339E+01
  0.46732393E+01
  0.40597500E+01
  0.35355060E+01
  0.31416830E+01
  0.29247058E+01
  0.32286139E+01
  0.31001083E+01
  0.31643907E+01
  0.34179223E+01
  0.38509489E+01
  0.44527574E+01
  0.51990829E+01
  0.60168216E+01
  0.67270755E+01
  0.71103073E+01
  0.72054731E+01
  0.71697053E+01
  0.70558990E+01
  0.68167836E+01
  0.63787607E+01
  0.57849761E+01
  0.51482896E+01
  0.45364345E+01
  0.39860801E+01
  0.35355633E+01
  0.32286139E+01
  0.31001411E+01
  0.29075766E+01
  0.29278973E+01
  0.31393874E+01
  0.35120869E+01
  0.40314828E+01
  0.46983611E+01
  0.54970844E+01
  0.63243317E+01
  0.69208910E+01
  0.71367735E+01
  0.71263897E+01
  0.70034482E+01
  0.67619560E+01
  0.63596454E+01
  0.58288911E+01
  0.52401808E+01
  0.46290403E+01
  0.40264595E+01
  0.34917575E+01
  0.31001411E+01
  0.31644925E+01
  0.29279854E+01
  0.29119279E+01
  0.30870681E+01
  0.34097515E+01
  0.38568587E+01
  0.44373148E+01
  0.51667675E+01
  0.59994241E+01
  0.67261105E+01
  0.70837992E+01
  0.71345357E+01
  0.70308988E+01
  0.68022528E+01
  0.64261181E+01
  0.59346131E+01
  0.53834733E+01
  0.47902548E+01
  0.41755501E+01
  0.36035649E+01
  0.31644925E+01
  0.34180632E+01
  0.31395390E+01
  0.30871465E+01
  0.32348855E+01
  0.35329399E+01
  0.39462843E+01
  0.44753742E+01
  0.51395551E+01
  0.59179706E+01
  0.66595078E+01
  0.71072881E+01
  0.72307073E+01
  0.71745979E+01
  0.69942041E+01
  0.66740045E+01
  0.62275278E+01
  0.57016711E+01
  0.51168490E+01
  0.44934809E+01
  0.38956124E+01
  0.34180632E+01
  0.38510730E+01
  0.35122316E+01
  0.34098375E+01
  0.35329545E+01
  0.38343775E+01
  0.42647458E+01
  0.47986524E+01
  0.54308660E+01
  0.61362307E+01
  0.68086387E+01
  0.72627254E+01
  0.74384869E+01
  0.74424244E+01
  0.73406045E+01
  0.71219395E+01
  0.67575284E+01
  0.62612342E+01
  0.56691564E+01
  0.50205304E+01
  0.43828477E+01
  0.38510730E+01
  0.44528513E+01
  0.40315794E+01
  0.38568915E+01
  0.39462420E+01
  0.42646833E+01
  0.47472908E+01
  0.53265879E+01
  0.59474186E+01
  0.65616986E+01
  0.71076727E+01
  0.75007620E+01
  0.77027886E+01
  0.77715763E+01
  0.77600931E+01
  0.76659532E+01
  0.74267401E+01
  0.69879686E+01
  0.63969021E+01
  0.57280208E+01
  0.50505929E+01
  0.44528513E+01
  0.51992196E+01
  0.46984652E+01
  0.44373217E+01
  0.44752743E+01
  0.47985050E+01
  0.53264860E+01
  0.59369673E+01
  0.65084381E+01
  0.69777823E+01
  0.73521420E+01
  0.76463102E+01
  0.78528032E+01
  0.79910452E+01
  0.80904648E+01
  0.81273340E+01
  0.80160247E+01
  0.76516826E+01
  0.71081714E+01
  0.64871068E+01
  0.58306395E+01
  0.51992196E+01
  0.60171076E+01
  0.54973314E+01
  0.51668711E+01
  0.51394909E+01
  0.54306992E+01
  0.59472584E+01
  0.65083623E+01
  0.69390748E+01
  0.72146100E+01
  0.74217187E+01
  0.76198334E+01
  0.78048183E+01
  0.79615713E+01
  0.81102140E+01
  0.82650982E+01
  0.83040481E+01
  0.79882900E+01
  0.75451828E+01
  0.70777235E+01
  0.65730714E+01
  0.60171076E+01
  0.67274390E+01
  0.63247607E+01
  0.59997215E+01
  0.59180486E+01
  0.61361427E+01
  0.65615648E+01
  0.69776991E+01
  0.72145875E+01
  0.73176954E+01
  0.74016519E+01
  0.75234598E+01
  0.76770224E+01
  0.78293149E+01
  0.79747427E+01
  0.81240110E+01
  0.82369002E+01
  0.80418120E+01
  0.76849745E+01
  0.73596749E+01
  0.70677979E+01
  0.67274390E+01
  0.71105098E+01
  0.69212303E+01
  0.67264470E+01
  0.66596871E+01
  0.68086528E+01
  0.71076103E+01
  0.73520866E+01
  0.74216999E+01
  0.74016552E+01
  0.73946086E+01
  0.74461441E+01
  0.75541721E+01
  0.76904036E+01
  0.78342125E+01
  0.79811572E+01
  0.81000025E+01
  0.80071488E+01
  0.77085658E+01
  0.74404274E+01
  0.72605091E+01
  0.71105098E+01
  0.72055203E+01
  0.71368726E+01
  0.70839241E+01
  0.71073742E+01
  0.72627503E+01
  0.75007496E+01
  0.76462759E+01
  0.76198092E+01
  0.75234636E+01
  0.74461573E+01
  0.74278640E+01
  0.74760072E+01
  0.75775555E+01
  0.77133941E+01
  0.78649643E+01
  0.79930510E+01
  0.79600051E+01
  0.77100060E+01
  0.74537249E+01
  0.72934956E+01
  0.72055203E+01
  0.71696741E+01
  0.71263425E+01
  0.71344788E+01
  0.72306475E+01
  0.74384453E+01
  0.77027814E+01
  0.78527845E+01
  0.78047765E+01
  0.76770058E+01
  0.75541852E+01
  0.74760241E+01
  0.74622318E+01
  0.75160625E+01
  0.76272483E+01
  0.77740023E+01
  0.79088762E+01
  0.79102671E+01
  0.76982094E+01
  0.74404179E+01
  0.72637705E+01
  0.71696741E+01
  0.70558261E+01
  0.70033188E+01
  0.70307287E+01
  0.71744229E+01
  0.74422950E+01
  0.77715297E+01
  0.79910420E+01
  0.79615248E+01
  0.78292694E+01
  0.76903918E+01
  0.75775693E+01
  0.75160755E+01
  0.75222647E+01
  0.75939680E+01
  0.77091340E+01
  0.78178653E+01
  0.78130234E+01
  0.76149079E+01
  0.73596360E+01
  0.71702699E+01
  0.70558261E+01
  0.68166985E+01
  0.67617811E+01
  0.68019977E+01
  0.69939152E+01
  0.73403625E+01
  0.77599630E+01
  0.80904472E+01
  0.81101740E+01
  0.79746763E+01
  0.78341599E+01
  0.77133708E+01
  0.76272433E+01
  0.75939642E+01
  0.76137906E+01
  0.76600254E+01
  0.76737314E+01
  0.75620825E+01
  0.73153492E+01
  0.70776665E+01
  0.69196600E+01
  0.68166985E+01
  0.63787679E+01
  0.63595535E+01
  0.64258964E+01
  0.66736728E+01
  0.71215950E+01
  0.76657187E+01
  0.81272449E+01
  0.82650688E+01
  0.81239321E+01
  0.79810640E+01
  0.78648791E+01
  0.77739373E+01
  0.77090879E+01
  0.76599981E+01
  0.75836516E+01
  0.73986358E+01
  0.70592323E+01
  0.67019667E+01
  0.64871336E+01
  0.64104936E+01
  0.63787679E+01
  0.57851782E+01
  0.58290524E+01
  0.59346491E+01
  0.62273936E+01
  0.67572662E+01
  0.74264819E+01
  0.80158808E+01
  0.83040026E+01
  0.82368426E+01
  0.80999020E+01
  0.79929278E+01
  0.79087474E+01
  0.78177522E+01
  0.76736551E+01
  0.73986063E+01
  0.69249518E+01
  0.63541828E+01
  0.59168977E+01
  0.57281885E+01
  0.57297329E+01
  0.57851782E+01
  0.51486286E+01
  0.52405575E+01
  0.53837919E+01
  0.57018505E+01
  0.62612461E+01
  0.69878638E+01
  0.76515687E+01
  0.79882299E+01
  0.80417883E+01
  0.80071146E+01
  0.79599351E+01
  0.79101584E+01
  0.78128885E+01
  0.75619739E+01
  0.70591895E+01
  0.63541774E+01
  0.56647324E+01
  0.51990626E+01
  0.50207980E+01
  0.50504925E+01
  0.51486286E+01
  0.45367574E+01
  0.46294250E+01
  0.47906352E+01
  0.51171625E+01
  0.56693534E+01
  0.63969586E+01
  0.71081123E+01
  0.75450973E+01
  0.76849258E+01
  0.77085397E+01
  0.77099717E+01
  0.76981459E+01
  0.76148082E+01
  0.73152477E+01
  0.67019123E+01
  0.59168705E+01
  0.51990371E+01
  0.47124573E+01
  0.44937655E+01
  0.44719877E+01
  0.45367574E+01
  0.39862726E+01
  0.40266840E+01
  0.41757705E+01
  0.44936793E+01
  0.50206856E+01
  0.57280917E+01
  0.64870522E+01
  0.70775897E+01
  0.73595793E+01
  0.74403855E+01
  0.74537022E+01
  0.74403879E+01
  0.73595860E+01
  0.70776014E+01
  0.64870644E+01
  0.57281005E+01
  0.50206908E+01
  0.44936821E+01
  0.41757720E+01
  0.40266846E+01
  0.39862726E+01
  0.35356199E+01
  0.34918050E+01
  0.36035764E+01
  0.38956052E+01
  0.43828448E+01
  0.50505759E+01
  0.58305376E+01
  0.65728518E+01
  0.70675979E+01
  0.72604211E+01
  0.72934742E+01
  0.72637744E+01
  0.71702805E+01
  0.69196613E+01
  0.64104332E+01
  0.57295691E+01
  0.50502623E+01
  0.44717795E+01
  0.40265747E+01
  0.37158653E+01
  0.35356199E+01
  0.32286139E+01
  0.31001083E+01
  0.31643907E+01
  0.34179223E+01
  0.38509489E+01
  0.44527574E+01
  0.51990829E+01
  0.60168216E+01
  0.67270755E+01
  0.71103073E+01
  0.72054731E+01
  0.71697053E+01
  0.70558990E+01
  0.68167836E+01
  0.63787607E+01
  0.57849761E+01
  0.51482896E+01
  0.45364345E+01
  0.39860801E+01
  0.35355633E+01
  0.32286139E+01
  0.36885894E+01
  0.34617204E+01
  0.34179305E+01
  0.35841681E+01
  0.39684356E+01
  0.45546259E+01
  0.52942691E+01
  0.60930218E+01
  0.67954903E+01
  0.72258934E+01
  0.73726424E+01
  0.73677456E+01
  0.72876360E+01
  0.71227241E+01
  0.68006723E+01
  0.62920241E+01
  0.56888579E+01
  0.50881711E+01
  0.45365036E+01
  0.40598612E+01
  0.36885894E+01
  0.34617584E+01
  0.31948135E+01
  0.31394138E+01
  0.32905961E+01
  0.36242023E+01
  0.41176942E+01
  0.47559107E+01
  0.55121747E+01
  0.63026763E+01
  0.69351805E+01
  0.72355469E+01
  0.72815498E+01
  0.71977231E+01
  0.70098190E+01
  0.66854794E+01
  0.62222551E+01
  0.56718253E+01
  0.50772745E+01
  0.44716946E+01
  0.39088828E+01
  0.34617584E+01
  0.34180627E+01
  0.31395396E+01
  0.30871485E+01
  0.32348885E+01
  0.35329430E+01
  0.39462864E+01
  0.44753741E+01
  0.51395526E+01
  0.59179666E+01
  0.66595045E+01
  0.71072877E+01
  0.72307080E+01
  0.71745976E+01
  0.69942023E+01
  0.66740019E+01
  0.62275255E+01
  0.57016692E+01
  0.51168474E+01
  0.44934794E+01
  0.38956112E+01
  0.34180627E+01
  0.35843619E+01
  0.32908338E+01
  0.32350313E+01
  0.33813415E+01
  0.36628348E+01
  0.40294559E+01
  0.44815103E+01
  0.50594359E+01
  0.57797741E+01
  0.65347732E+01
  0.70640729E+01
  0.72564821E+01
  0.72454542E+01
  0.71096114E+01
  0.68387487E+01
  0.64336209E+01
  0.59315719E+01
  0.53507472E+01
  0.47121846E+01
  0.40875831E+01
  0.35843619E+01
  0.39686189E+01
  0.36244710E+01
  0.35331583E+01
  0.36629287E+01
  0.39406497E+01
  0.43018147E+01
  0.47322823E+01
  0.52665866E+01
  0.59287442E+01
  0.66395859E+01
  0.71765742E+01
  0.74047611E+01
  0.74350312E+01
  0.73625269E+01
  0.71867653E+01
  0.68775477E+01
  0.64321153E+01
  0.58620708E+01
  0.51987772E+01
  0.45271911E+01
  0.39686189E+01
  0.45547744E+01
  0.41179370E+01
  0.39464965E+01
  0.40295593E+01
  0.43018266E+01
  0.46877399E+01
  0.51459078E+01
  0.56789200E+01
  0.62920210E+01
  0.69251111E+01
  0.74206303E+01
  0.76603587E+01
  0.77231835E+01
  0.77083676E+01
  0.76345909E+01
  0.74572872E+01
  0.71140803E+01
  0.65877955E+01
  0.59166499E+01
  0.51945653E+01
  0.45547744E+01
  0.52944690E+01
  0.47561824E+01
  0.44755932E+01
  0.44816004E+01
  0.47322585E+01
  0.51458564E+01
  0.56431065E+01
  0.61739751E+01
  0.67116022E+01
  0.72221448E+01
  0.76383714E+01
  0.78891538E+01
  0.80062717E+01
  0.80588799E+01
  0.80594724E+01
  0.79862633E+01
  0.77545530E+01
  0.73132016E+01
  0.67017808E+01
  0.59893277E+01
  0.52944690E+01
  0.60934177E+01
  0.55126368E+01
  0.51399126E+01
  0.50595974E+01
  0.52665686E+01
  0.56788287E+01
  0.61739160E+01
  0.66418647E+01
  0.70381972E+01
  0.73792560E+01
  0.76776913E+01
  0.79062766E+01
  0.80586215E+01
  0.81883362E+01
  0.83182047E+01
  0.83019983E+01
  0.81383609E+01
  0.77848994E+01
  0.73152142E+01
  0.67369492E+01
  0.60934177E+01
  0.67960505E+01
  0.63034116E+01
  0.59185966E+01
  0.57801250E+01
  0.59288204E+01
  0.62919513E+01
  0.67115276E+01
  0.70381711E+01
  0.72535250E+01
  0.74300715E+01
  0.76143322E+01
  0.77941123E+01
  0.79374924E+01
  0.80561895E+01
  0.81730857E+01
  0.82836965E+01
  0.82544672E+01
  0.79484099E+01
  0.76148099E+01
  0.72470955E+01
  0.67960505E+01
  0.72262981E+01
  0.69358895E+01
  0.66602510E+01
  0.65352742E+01
  0.66397743E+01
  0.69250996E+01
  0.72220854E+01
  0.73792273E+01
  0.74300710E+01
  0.74750292E+01
  0.75612957E+01
  0.76814532E+01
  0.78035973E+01
  0.79177291E+01
  0.80375203E+01
  0.81704806E+01
  0.82748927E+01
  0.79786900E+01
  0.76981376E+01
  0.74656252E+01
  0.72262981E+01
  0.73727866E+01
  0.72358775E+01
  0.71077230E+01
  0.70644215E+01
  0.71767364E+01
  0.74206497E+01
  0.76383273E+01
  0.76776500E+01
  0.76143280E+01
  0.75613075E+01
  0.75613839E+01
  0.76137434E+01
  0.76990360E+01
  0.78039689E+01
  0.79281386E+01
  0.80701123E+01
  0.81837875E+01
  0.79813123E+01
  0.77099577E+01
  0.75137615E+01
  0.73727866E+01
  0.73677373E+01
  0.72815831E+01
  0.72307770E+01
  0.72565366E+01
  0.74047736E+01
  0.76603550E+01
  0.78891356E+01
  0.79062161E+01
  0.77940791E+01
  0.76814591E+01
  0.76137570E+01
  0.76018684E+01
  0.76420266E+01
  0.77269393E+01
  0.78498053E+01
  0.79973709E+01
  0.81106305E+01
  0.79787823E+01
  0.77085405E+01
  0.74981166E+01
  0.73677373E+01
  0.72875507E+01
  0.71975908E+01
  0.71744370E+01
  0.72452870E+01
  0.74348910E+01
  0.77231104E+01
  0.80062707E+01
  0.80585719E+01
  0.79374263E+01
  0.78035685E+01
  0.76990368E+01
  0.76420316E+01
  0.76413169E+01
  0.76969836E+01
  0.78018634E+01
  0.79373870E+01
  0.80412944E+01
  0.79486120E+01
  0.76849686E+01
  0.74462368E+01
  0.72875507E+01
  0.71226151E+01
  0.70095929E+01
  0.69938850E+01
  0.71092630E+01
  0.73622319E+01
  0.77081918E+01
  0.80588333E+01
  0.81883037E+01
  0.80561030E+01
  0.79176535E+01
  0.78039218E+01
  0.77269140E+01
  0.76969686E+01
  0.77167271E+01
  0.77769583E+01
  0.78543755E+01
  0.78926577E+01
  0.77852290E+01
  0.75452168E+01
  0.73062863E+01
  0.71226151E+01
  0.68006561E+01
  0.66852979E+01
  0.66736493E+01
  0.68382818E+01
  0.71863159E+01
  0.76342980E+01
  0.80593588E+01
  0.83181425E+01
  0.81729899E+01
  0.80374009E+01
  0.79280206E+01
  0.78497064E+01
  0.78017900E+01
  0.77769150E+01
  0.77530530E+01
  0.76887772E+01
  0.75363750E+01
  0.73135138E+01
  0.71082910E+01
  0.69467061E+01
  0.68006561E+01
  0.62922378E+01
  0.62223476E+01
  0.62274228E+01
  0.64333157E+01
  0.68771386E+01
  0.74569671E+01
  0.79861660E+01
  0.83020468E+01
  0.82836526E+01
  0.81703376E+01
  0.80699261E+01
  0.79971801E+01
  0.79372171E+01
  0.78542503E+01
  0.76887146E+01
  0.73775672E+01
  0.69543282E+01
  0.65880711E+01
  0.63971447E+01
  0.63386419E+01
  0.62922378E+01
  0.56892577E+01
  0.56722163E+01
  0.57019424E+01
  0.59316655E+01
  0.64320459E+01
  0.71139693E+01
  0.77545717E+01
  0.81385090E+01
  0.82545970E+01
  0.82748984E+01
  0.81836265E+01
  0.81104408E+01
  0.80410793E+01
  0.78924507E+01
  0.75362480E+01
  0.69542776E+01
  0.63207357E+01
  0.58623846E+01
  0.56695254E+01
  0.56637367E+01
  0.56892577E+01
  0.50885747E+01
  0.50777331E+01
  0.51172778E+01
  0.53510962E+01
  0.58623173E+01
  0.65879557E+01
  0.73133344E+01
  0.77850257E+01
  0.79484896E+01
  0.79787380E+01
  0.79813237E+01
  0.79787399E+01
  0.79484957E+01
  0.77850378E+01
  0.73133475E+01
  0.65879654E+01
  0.58623234E+01
  0.53510995E+01
  0.51172793E+01
  0.50777337E+01
  0.50885747E+01
  0.45367582E+01
  0.44719880E+01
  0.44937647E+01
  0.47124545E+01
  0.51990312E+01
  0.59168602E+01
  0.67018977E+01
  0.73152327E+01
  0.76147991E+01
  0.76981425E+01
  0.77099712E+01
  0.77085410E+01
  0.76849300E+01
  0.75451065E+01
  0.71081238E+01
  0.63969672E+01
  0.56693586E+01
  0.51171655E+01
  0.47906370E+01
  0.46294263E+01
  0.45367582E+01
  0.40599423E+01
  0.39089567E+01
  0.38956401E+01
  0.40875942E+01